version 2
run General-0-20220517-11:59:59-17689
attr configname General
attr datetime 20220517-11:59:59
attr experiment General
attr inifile omnetpp.ini
attr iterationvars ""
attr iterationvars2 $repetition=0
attr measurement ""
attr network UAVNet
attr processid 17689
attr repetition 0
attr replication #0
attr resultdir results
attr runnumber 0
attr seedset 0

vector 5  UAVNet.host[0].wlan[0].mgmt  dataQueueLen:vector  ETV
attr interpolationmode  sample-hold
attr title  "data queue length, vector"
vector 25  UAVNet.host[1].wlan[0].mgmt  dataQueueLen:vector  ETV
attr interpolationmode  sample-hold
attr title  "data queue length, vector"
vector 50  UAVNet.host[2].wlan[0].mgmt  dataQueueLen:vector  ETV
attr interpolationmode  sample-hold
attr title  "data queue length, vector"
vector 75  UAVNet.host[3].wlan[0].mgmt  dataQueueLen:vector  ETV
attr interpolationmode  sample-hold
attr title  "data queue length, vector"
vector 100  UAVNet.host[4].wlan[0].mgmt  dataQueueLen:vector  ETV
attr interpolationmode  sample-hold
attr title  "data queue length, vector"
vector 111  UAVNet.host[0].wlan[0].mac  RadioState  ETV
attr enum  "IDLE=0, OFF=4, RECV=1, SLEEP=3, TRANSMIT=2"
attr enumname  RadioState
vector 110  UAVNet.host[0].wlan[0].mac  State  ETV
attr enum  "BACKOFF=3, DEFER=1, IDLE=0, RECEIVE=8, WAITACK=4, WAITAIFS=2, WAITCTS=6, WAITMULTICAST=5, WAITSIFS=7"
attr enumname  Ieee80211Mac
vector 117  UAVNet.host[1].wlan[0].mac  RadioState  ETV
attr enum  "IDLE=0, OFF=4, RECV=1, SLEEP=3, TRANSMIT=2"
attr enumname  RadioState
vector 116  UAVNet.host[1].wlan[0].mac  State  ETV
attr enum  "BACKOFF=3, DEFER=1, IDLE=0, RECEIVE=8, WAITACK=4, WAITAIFS=2, WAITCTS=6, WAITMULTICAST=5, WAITSIFS=7"
attr enumname  Ieee80211Mac
vector 123  UAVNet.host[2].wlan[0].mac  RadioState  ETV
attr enum  "IDLE=0, OFF=4, RECV=1, SLEEP=3, TRANSMIT=2"
attr enumname  RadioState
vector 122  UAVNet.host[2].wlan[0].mac  State  ETV
attr enum  "BACKOFF=3, DEFER=1, IDLE=0, RECEIVE=8, WAITACK=4, WAITAIFS=2, WAITCTS=6, WAITMULTICAST=5, WAITSIFS=7"
attr enumname  Ieee80211Mac
vector 129  UAVNet.host[3].wlan[0].mac  RadioState  ETV
attr enum  "IDLE=0, OFF=4, RECV=1, SLEEP=3, TRANSMIT=2"
attr enumname  RadioState
vector 128  UAVNet.host[3].wlan[0].mac  State  ETV
attr enum  "BACKOFF=3, DEFER=1, IDLE=0, RECEIVE=8, WAITACK=4, WAITAIFS=2, WAITCTS=6, WAITMULTICAST=5, WAITSIFS=7"
attr enumname  Ieee80211Mac
vector 135  UAVNet.host[4].wlan[0].mac  RadioState  ETV
attr enum  "IDLE=0, OFF=4, RECV=1, SLEEP=3, TRANSMIT=2"
attr enumname  RadioState
vector 134  UAVNet.host[4].wlan[0].mac  State  ETV
attr enum  "BACKOFF=3, DEFER=1, IDLE=0, RECEIVE=8, WAITACK=4, WAITAIFS=2, WAITCTS=6, WAITMULTICAST=5, WAITSIFS=7"
attr enumname  Ieee80211Mac
vector 11  UAVNet.host[0].wlan[0].radio  bitrate:vector  ETV
attr interpolationmode  sample-hold
attr title  "tx bitrate, vector"
attr unit  bps
vector 13  UAVNet.host[0].wlan[0].radio  radioState:vector  ETV
attr interpolationmode  sample-hold
attr title  "radio state (enum), vector"
vector 12  UAVNet.host[0].wlan[0].radio  channelNo:vector  ETV
attr interpolationmode  sample-hold
attr title  "channel no, vector"
vector 31  UAVNet.host[1].wlan[0].radio  bitrate:vector  ETV
attr interpolationmode  sample-hold
attr title  "tx bitrate, vector"
attr unit  bps
vector 33  UAVNet.host[1].wlan[0].radio  radioState:vector  ETV
attr interpolationmode  sample-hold
attr title  "radio state (enum), vector"
vector 32  UAVNet.host[1].wlan[0].radio  channelNo:vector  ETV
attr interpolationmode  sample-hold
attr title  "channel no, vector"
vector 56  UAVNet.host[2].wlan[0].radio  bitrate:vector  ETV
attr interpolationmode  sample-hold
attr title  "tx bitrate, vector"
attr unit  bps
vector 58  UAVNet.host[2].wlan[0].radio  radioState:vector  ETV
attr interpolationmode  sample-hold
attr title  "radio state (enum), vector"
vector 57  UAVNet.host[2].wlan[0].radio  channelNo:vector  ETV
attr interpolationmode  sample-hold
attr title  "channel no, vector"
vector 81  UAVNet.host[3].wlan[0].radio  bitrate:vector  ETV
attr interpolationmode  sample-hold
attr title  "tx bitrate, vector"
attr unit  bps
vector 83  UAVNet.host[3].wlan[0].radio  radioState:vector  ETV
attr interpolationmode  sample-hold
attr title  "radio state (enum), vector"
vector 82  UAVNet.host[3].wlan[0].radio  channelNo:vector  ETV
attr interpolationmode  sample-hold
attr title  "channel no, vector"
vector 106  UAVNet.host[4].wlan[0].radio  bitrate:vector  ETV
attr interpolationmode  sample-hold
attr title  "tx bitrate, vector"
attr unit  bps
vector 108  UAVNet.host[4].wlan[0].radio  radioState:vector  ETV
attr interpolationmode  sample-hold
attr title  "radio state (enum), vector"
vector 107  UAVNet.host[4].wlan[0].radio  channelNo:vector  ETV
attr interpolationmode  sample-hold
attr title  "channel no, vector"
vector 18  UAVNet.host[1].pingApp[0]  pingTxSeq:vector  ETV
attr interpolationmode  none
attr title  "ping tx seq, vector"
vector 38  UAVNet.host[2].pingApp[0]  pingTxSeq:vector  ETV
attr interpolationmode  none
attr title  "ping tx seq, vector"
vector 63  UAVNet.host[3].pingApp[0]  pingTxSeq:vector  ETV
attr interpolationmode  none
attr title  "ping tx seq, vector"
vector 88  UAVNet.host[4].pingApp[0]  pingTxSeq:vector  ETV
attr interpolationmode  none
attr title  "ping tx seq, vector"
vector 20  UAVNet.host[1].networkLayer.arp  sentReq:vector  ETV
attr title  "ARP request sent, vector"
vector 45  UAVNet.host[2].networkLayer.arp  sentReq:vector  ETV
attr title  "ARP request sent, vector"
vector 70  UAVNet.host[3].networkLayer.arp  sentReq:vector  ETV
attr title  "ARP request sent, vector"
vector 95  UAVNet.host[4].networkLayer.arp  sentReq:vector  ETV
attr title  "ARP request sent, vector"
vector 29  UAVNet.host[1].wlan[0].mac  rcvdPkFromHL:vector(packetBytes)  ETV
attr interpolationmode  none
attr source  packetReceivedFromUpper
attr title  "packets received from higher layer, vector(packetBytes)"
vector 119  UAVNet.host[1].wlan[0].mac  "throughput AC0"  ETV
vector 54  UAVNet.host[2].wlan[0].mac  rcvdPkFromHL:vector(packetBytes)  ETV
attr interpolationmode  none
attr source  packetReceivedFromUpper
attr title  "packets received from higher layer, vector(packetBytes)"
vector 125  UAVNet.host[2].wlan[0].mac  "throughput AC0"  ETV
vector 79  UAVNet.host[3].wlan[0].mac  rcvdPkFromHL:vector(packetBytes)  ETV
attr interpolationmode  none
attr source  packetReceivedFromUpper
attr title  "packets received from higher layer, vector(packetBytes)"
vector 131  UAVNet.host[3].wlan[0].mac  "throughput AC0"  ETV
vector 104  UAVNet.host[4].wlan[0].mac  rcvdPkFromHL:vector(packetBytes)  ETV
attr interpolationmode  none
attr source  packetReceivedFromUpper
attr title  "packets received from higher layer, vector(packetBytes)"
vector 137  UAVNet.host[4].wlan[0].mac  "throughput AC0"  ETV
vector 28  UAVNet.host[1].wlan[0].mac  sentDownPk:vector(packetBytes)  ETV
attr interpolationmode  none
attr source  packetSentToLower
attr title  "packets sent to lower layer, vector(packetBytes)"
vector 53  UAVNet.host[2].wlan[0].mac  sentDownPk:vector(packetBytes)  ETV
attr interpolationmode  none
attr source  packetSentToLower
attr title  "packets sent to lower layer, vector(packetBytes)"
vector 78  UAVNet.host[3].wlan[0].mac  sentDownPk:vector(packetBytes)  ETV
attr interpolationmode  none
attr source  packetSentToLower
attr title  "packets sent to lower layer, vector(packetBytes)"
vector 103  UAVNet.host[4].wlan[0].mac  sentDownPk:vector(packetBytes)  ETV
attr interpolationmode  none
attr source  packetSentToLower
attr title  "packets sent to lower layer, vector(packetBytes)"
vector 113  UAVNet.host[0].wlan[0].mac  "throughput AC0"  ETV
vector 115  UAVNet.host[0].wlan[0].radio  snirVector  ETV
vector 10  UAVNet.host[0].wlan[0].mac  rcvdPkFromLL:vector(packetBytes)  ETV
attr interpolationmode  none
attr source  packetReceivedFromLower
attr title  "packets received from lower layer, vector(packetBytes)"
vector 43  UAVNet.host[2].pingApp[1]  pingTxSeq:vector  ETV
attr interpolationmode  none
attr title  "ping tx seq, vector"
vector 68  UAVNet.host[3].pingApp[1]  pingTxSeq:vector  ETV
attr interpolationmode  none
attr title  "ping tx seq, vector"
vector 93  UAVNet.host[4].pingApp[1]  pingTxSeq:vector  ETV
attr interpolationmode  none
attr title  "ping tx seq, vector"
vector 7  UAVNet.host[0].wlan[0].mac  passedUpPk:vector(packetBytes)  ETV
attr interpolationmode  none
attr source  packetSentToUpper
attr title  "packets passed to higher layer, vector(packetBytes)"
vector 127  UAVNet.host[2].wlan[0].radio  snirVector  ETV
vector 55  UAVNet.host[2].wlan[0].mac  rcvdPkFromLL:vector(packetBytes)  ETV
attr interpolationmode  none
attr source  packetReceivedFromLower
attr title  "packets received from lower layer, vector(packetBytes)"
vector 52  UAVNet.host[2].wlan[0].mac  passedUpPk:vector(packetBytes)  ETV
attr interpolationmode  none
attr source  packetSentToUpper
attr title  "packets passed to higher layer, vector(packetBytes)"
vector 133  UAVNet.host[3].wlan[0].radio  snirVector  ETV
vector 80  UAVNet.host[3].wlan[0].mac  rcvdPkFromLL:vector(packetBytes)  ETV
attr interpolationmode  none
attr source  packetReceivedFromLower
attr title  "packets received from lower layer, vector(packetBytes)"
vector 77  UAVNet.host[3].wlan[0].mac  passedUpPk:vector(packetBytes)  ETV
attr interpolationmode  none
attr source  packetSentToUpper
attr title  "packets passed to higher layer, vector(packetBytes)"
vector 121  UAVNet.host[1].wlan[0].radio  snirVector  ETV
vector 30  UAVNet.host[1].wlan[0].mac  rcvdPkFromLL:vector(packetBytes)  ETV
attr interpolationmode  none
attr source  packetReceivedFromLower
attr title  "packets received from lower layer, vector(packetBytes)"
vector 27  UAVNet.host[1].wlan[0].mac  passedUpPk:vector(packetBytes)  ETV
attr interpolationmode  none
attr source  packetSentToUpper
attr title  "packets passed to higher layer, vector(packetBytes)"
vector 21  UAVNet.host[1].networkLayer.arp  sentReply:vector  ETV
attr title  "ARP replies sent, vector"
vector 139  UAVNet.host[4].wlan[0].radio  snirVector  ETV
vector 105  UAVNet.host[4].wlan[0].mac  rcvdPkFromLL:vector(packetBytes)  ETV
attr interpolationmode  none
attr source  packetReceivedFromLower
attr title  "packets received from lower layer, vector(packetBytes)"
vector 102  UAVNet.host[4].wlan[0].mac  passedUpPk:vector(packetBytes)  ETV
attr interpolationmode  none
attr source  packetSentToUpper
attr title  "packets passed to higher layer, vector(packetBytes)"
5	0	0	0
7	995	20.001637875256	70
7	1080	20.003272231496	70
10	68	10.000781440283	70
10	153	11.000781440283	70
10	238	12.000781440283	70
10	323	13.000781440283	70
10	408	14.000781440283	70
10	493	15.000781440283	70
10	578	16.000781440283	70
10	663	17.000781440283	70
10	748	18.000781440283	70
10	857	19.000781440283	70
10	965	20.000781659952	70
10	995	20.001637875256	70
10	1041	20.002145727555	70
10	1055	20.002460305864	14
10	1080	20.003272231496	70
10	1115	20.003974439144	118
10	1154	20.004659499971	70
10	1168	20.00497407828	14
10	1185	20.00572907828	118
10	1218	20.006050930579	14
10	1229	20.006779508888	118
10	1257	20.007101361187	14
10	1276	20.007619361187	70
10	1290	20.007933939496	14
10	1315	20.008873791795	70
10	1329	20.009188370104	14
10	1346	20.009943370104	118
10	1374	20.010265222403	14
10	1385	20.011695800712	118
10	1413	20.012017653011	14
10	1432	20.012832653011	70
10	1446	20.01314723132	14
10	1471	20.013772083619	70
10	1485	20.014086661928	14
10	1510	20.014684514227	70
10	1525	20.014999092536	14
10	1555	20.015506944835	70
11	0	0	2000000
12	0	0	0
13	0	0	0
13	43	10.000029440283	1
13	77	10.000783024013	0
13	128	11.000029440283	1
13	162	11.000783024013	0
13	213	12.000029440283	1
13	247	12.000783024013	0
13	298	13.000029440283	1
13	332	13.000783024013	0
13	383	14.000029440283	1
13	417	14.000783024013	0
13	468	15.000029440283	1
13	502	15.000783024013	0
13	553	16.000029440283	1
13	587	16.000783024013	0
13	638	17.000029440283	1
13	672	17.000783024013	0
13	723	18.000029440283	1
13	757	18.000783024013	0
13	832	19.000029440283	1
13	866	19.000783024013	0
13	940	20.000029659952	1
13	980	20.000785296947	0
13	988	20.000885875256	1
13	994	20.001637875256	0
13	1025	20.001673727555	1
13	1040	20.002145727555	0
13	1045	20.002156305864	1
13	1054	20.002460305864	0
13	1069	20.002520231496	1
13	1079	20.003272231496	0
13	1105	20.003310439144	1
13	1130	20.004066567405	0
13	1140	20.004187499971	1
13	1153	20.004659499971	0
13	1158	20.00467007828	1
13	1167	20.00497407828	0
13	1179	20.00506507828	1
13	1184	20.00572907828	0
13	1205	20.005746930579	1
13	1217	20.006050930579	0
13	1223	20.006115508888	1
13	1228	20.006779508888	0
13	1244	20.006797361187	1
13	1256	20.007101361187	0
13	1265	20.007147361187	1
13	1275	20.007619361187	0
13	1280	20.007629939496	1
13	1289	20.007933939496	0
13	1304	20.008401791795	1
13	1314	20.008873791795	0
13	1319	20.008884370104	1
13	1328	20.009188370104	0
13	1340	20.009279370104	1
13	1345	20.009943370104	0
13	1361	20.009961222403	1
13	1373	20.010265222403	0
13	1379	20.011031800712	1
13	1384	20.011695800712	0
13	1400	20.011713653011	1
13	1412	20.012017653011	0
13	1421	20.012360653011	1
13	1431	20.012832653011	0
13	1436	20.01284323132	1
13	1445	20.01314723132	0
13	1460	20.013300083619	1
13	1470	20.013772083619	0
13	1475	20.013782661928	1
13	1484	20.014086661928	0
13	1499	20.014212514227	1
13	1509	20.014684514227	0
13	1514	20.014695092536	1
13	1524	20.014999092536	0
13	1539	20.015034944835	1
13	1554	20.015506944835	0
13	1560	20.01551966019	1
18	11	10	0
18	92	11	1
18	177	12	2
18	262	13	3
18	347	14	4
18	432	15	5
18	517	16	6
18	602	17	7
18	687	18	8
18	796	19	9
18	889	20	10
20	19	10	1
20	96	11	1
20	181	12	1
20	274	13	1
20	351	14	1
20	436	15	1
20	529	16	1
20	606	17	1
20	691	18	1
20	808	19	1
20	893	20	1
21	1013	20.001640430608	1
21	1088	20.00327320591	1
21	1126	20.004064203024	1
25	0	0	0
25	1128	20.004064203024	1
25	1199	20.005731633632	2
25	1519	20.01499721728	1
27	1010	20.001640430608	70
27	1085	20.00327320591	70
27	1123	20.004064203024	70
27	1194	20.005731633632	118
28	35	10.000028	70
28	120	11.000028	70
28	205	12.000028	70
28	290	13.000028	70
28	375	14.000028	70
28	460	15.000028	70
28	545	16.000028	70
28	630	17.000028	70
28	715	18.000028	70
28	824	19.000028	70
28	932	20.000028	70
28	1020	20.001668430608	70
28	1135	20.004182203024	70
28	1200	20.005741633632	14
28	1239	20.00679206424	14
28	1260	20.00714206424	70
28	1299	20.008396494848	70
28	1356	20.009955925456	14
28	1395	20.011708356064	14
28	1416	20.012355356064	70
28	1455	20.013294786672	70
28	1494	20.01420721728	70
28	1534	20.015029647888	70
29	31	10	70
29	116	11	70
29	201	12	70
29	286	13	70
29	371	14	70
29	456	15	70
29	541	16	70
29	626	17	70
29	711	18	70
29	820	19	70
29	922	20	70
29	1016	20.001640430608	70
29	1091	20.00327320591	70
29	1520	20.01499721728	70
30	1010	20.001640430608	70
30	1061	20.002462861216	14
30	1085	20.00327320591	70
30	1123	20.004064203024	70
30	1174	20.004976633632	14
30	1194	20.005731633632	118
30	1238	20.00678206424	118
30	1296	20.007936494848	14
30	1335	20.009190925456	14
30	1355	20.009945925456	118
30	1394	20.011698356064	118
30	1452	20.013149786672	14
30	1491	20.01408921728	14
30	1531	20.015001647888	14
31	0	0	2000000
32	0	0	0
33	0	0	0
33	39	10.000028	2
33	63	10.00078	1
33	83	10.000783233387	0
33	124	11.000028	2
33	148	11.00078	1
33	168	11.000783233387	0
33	209	12.000028	2
33	233	12.00078	1
33	253	12.000783233387	0
33	294	13.000028	2
33	318	13.00078	1
33	338	13.000783233387	0
33	379	14.000028	2
33	403	14.00078	1
33	423	14.000783233387	0
33	464	15.000028	2
33	488	15.00078	1
33	508	15.000783233387	0
33	549	16.000028	2
33	573	16.00078	1
33	593	16.000783233387	0
33	634	17.000028	2
33	658	17.00078	1
33	678	17.000783233387	0
33	719	18.000028	2
33	743	18.00078	1
33	763	18.000783233387	0
33	828	19.000028	2
33	852	19.00078	1
33	872	19.000783233387	0
33	936	20.000028	2
33	960	20.00078	1
33	977	20.000784493358	0
33	991	20.000888430608	1
33	1009	20.001640430608	0
33	1021	20.001668430608	2
33	1026	20.002140430608	0
33	1048	20.002158861216	1
33	1060	20.002462861216	0
33	1070	20.00252120591	1
33	1084	20.00327320591	0
33	1108	20.003312203024	1
33	1122	20.004064203024	0
33	1136	20.004182203024	2
33	1144	20.004654203024	0
33	1161	20.004672633632	1
33	1173	20.004976633632	0
33	1182	20.005067633632	1
33	1193	20.005731633632	0
33	1201	20.005741633632	2
33	1210	20.006045633632	0
33	1226	20.00611806424	1
33	1237	20.00678206424	0
33	1240	20.00679206424	2
33	1249	20.00709606424	0
33	1261	20.00714206424	2
33	1266	20.00761406424	0
33	1283	20.007632494848	1
33	1295	20.007936494848	0
33	1300	20.008396494848	2
33	1305	20.008868494848	0
33	1322	20.008886925456	1
33	1334	20.009190925456	0
33	1343	20.009281925456	1
33	1354	20.009945925456	0
33	1357	20.009955925456	2
33	1366	20.010259925456	0
33	1382	20.011034356064	1
33	1393	20.011698356064	0
33	1396	20.011708356064	2
33	1405	20.012012356064	0
33	1417	20.012355356064	2
33	1422	20.012827356064	0
33	1439	20.012845786672	1
33	1451	20.013149786672	0
33	1456	20.013294786672	2
33	1461	20.013766786672	0
33	1478	20.01378521728	1
33	1490	20.01408921728	0
33	1495	20.01420721728	2
33	1500	20.01467921728	0
33	1517	20.014697647888	1
33	1530	20.015001647888	0
33	1535	20.015029647888	2
33	1540	20.015501647888	0
33	1561	20.015520634604	1
38	12	10	0
38	93	11	1
38	178	12	2
38	263	13	3
38	348	14	4
38	433	15	5
38	518	16	6
38	603	17	7
38	688	18	8
38	797	19	9
38	890	20	10
43	886	20	0
45	20	10	1
45	97	11	1
45	182	12	1
45	275	13	1
45	352	14	1
45	437	15	1
45	530	16	1
45	607	17	1
45	692	18	1
45	809	19	1
45	894	20	1
45	908	20	1
50	0	0	0
52	1000	20.001639281944	70
52	1548	20.015506141246	70
53	36	10.000028	70
53	121	11.000028	70
53	206	12.000028	70
53	291	13.000028	70
53	376	14.000028	70
53	461	15.000028	70
53	546	16.000028	70
53	631	17.000028	70
53	716	18.000028	70
53	825	19.000028	70
53	933	20.000028	70
53	1066	20.002516712552	70
53	1557	20.015516141246	14
54	32	10	70
54	117	11	70
54	202	12	70
54	287	13	70
54	372	14	70
54	457	15	70
54	542	16	70
54	627	17	70
54	712	18	70
54	821	19	70
54	923	20	70
54	929	20	70
54	1553	20.015506141246	118
55	1000	20.001639281944	70
55	1038	20.002144923966	70
55	1057	20.002461712552	14
55	1117	20.003975845832	118
55	1151	20.004658696382	70
55	1170	20.004975484968	14
55	1188	20.005730484968	118
55	1216	20.00605012699	14
55	1232	20.006780915576	118
55	1255	20.007100557598	14
55	1273	20.007618557598	70
55	1292	20.007935346184	14
55	1312	20.008872988206	70
55	1331	20.009189776792	14
55	1349	20.009944776792	118
55	1372	20.010264418814	14
55	1388	20.0116972074	118
55	1411	20.012016849422	14
55	1429	20.012831849422	70
55	1448	20.013148638008	14
55	1468	20.01377128003	70
55	1487	20.014088068616	14
55	1507	20.014683710638	70
55	1527	20.015000499224	14
55	1548	20.015506141246	70
56	0	0	2000000
57	0	0	0
58	0	0	0
58	40	10.000028	2
58	64	10.00078	1
58	79	10.000783039708	0
58	125	11.000028	2
58	149	11.00078	1
58	164	11.000783039708	0
58	210	12.000028	2
58	234	12.00078	1
58	249	12.000783039708	0
58	295	13.000028	2
58	319	13.00078	1
58	334	13.000783039708	0
58	380	14.000028	2
58	404	14.00078	1
58	419	14.000783039708	0
58	465	15.000028	2
58	489	15.00078	1
58	504	15.000783039708	0
58	550	16.000028	2
58	574	16.00078	1
58	589	16.000783039708	0
58	635	17.000028	2
58	659	17.00078	1
58	674	17.000783039708	0
58	720	18.000028	2
58	744	18.00078	1
58	759	18.000783039708	0
58	829	19.000028	2
58	853	19.00078	1
58	868	19.000783039708	0
58	937	20.000028	2
58	961	20.00078	1
58	979	20.000784677434	0
58	989	20.000887281944	1
58	999	20.001639281944	0
58	1024	20.001672923966	1
58	1037	20.002144923966	0
58	1046	20.002157712552	1
58	1056	20.002461712552	0
58	1067	20.002516712552	2
58	1073	20.003268712552	0
58	1106	20.003311845832	1
58	1131	20.00406706742	0
58	1139	20.004186696382	1
58	1150	20.004658696382	0
58	1159	20.004671484968	1
58	1169	20.004975484968	0
58	1180	20.005066484968	1
58	1187	20.005730484968	0
58	1204	20.00574612699	1
58	1215	20.00605012699	0
58	1224	20.006116915576	1
58	1231	20.006780915576	0
58	1243	20.006796557598	1
58	1254	20.007100557598	0
58	1264	20.007146557598	1
58	1272	20.007618557598	0
58	1281	20.007631346184	1
58	1291	20.007935346184	0
58	1303	20.008400988206	1
58	1311	20.008872988206	0
58	1320	20.008885776792	1
58	1330	20.009189776792	0
58	1341	20.009280776792	1
58	1348	20.009944776792	0
58	1360	20.009960418814	1
58	1371	20.010264418814	0
58	1380	20.0110332074	1
58	1387	20.0116972074	0
58	1399	20.011712849422	1
58	1410	20.012016849422	0
58	1420	20.012359849422	1
58	1428	20.012831849422	0
58	1437	20.012844638008	1
58	1447	20.013148638008	0
58	1459	20.01329928003	1
58	1467	20.01377128003	0
58	1476	20.013784068616	1
58	1486	20.014088068616	0
58	1498	20.014211710638	1
58	1506	20.014683710638	0
58	1515	20.014696499224	1
58	1526	20.015000499224	0
58	1538	20.015034141246	1
58	1547	20.015506141246	0
58	1558	20.015516141246	2
63	13	10	0
63	94	11	1
63	179	12	2
63	264	13	3
63	349	14	4
63	434	15	5
63	519	16	6
63	604	17	7
63	689	18	8
63	798	19	9
63	891	20	10
68	887	20	0
70	21	10	1
70	98	11	1
70	183	12	1
70	276	13	1
70	353	14	1
70	438	15	1
70	531	16	1
70	608	17	1
70	693	18	1
70	810	19	1
70	895	20	1
70	909	20	1
75	0	0	0
77	1005	20.001639429995	70
77	1093	20.003273389986	70
78	37	10.000028	70
78	122	11.000028	70
78	207	12.000028	70
78	292	13.000028	70
78	377	14.000028	70
78	462	15.000028	70
78	547	16.000028	70
78	632	17.000028	70
78	717	18.000028	70
78	826	19.000028	70
78	934	20.000028	70
78	1103	20.003310389986	70
79	33	10	70
79	118	11	70
79	203	12	70
79	288	13	70
79	373	14	70
79	458	15	70
79	543	16	70
79	628	17	70
79	713	18	70
79	822	19	70
79	924	20	70
79	930	20	70
80	1005	20.001639429995	70
80	1028	20.002142243646	70
80	1059	20.002461860603	14
80	1093	20.003273389986	70
80	1146	20.004656016062	70
80	1172	20.004975633019	14
80	1191	20.005730633019	118
80	1212	20.00604744667	14
80	1235	20.006781063627	118
80	1251	20.007097877278	14
80	1268	20.007615877278	70
80	1294	20.007935494235	14
80	1307	20.008870307886	70
80	1333	20.009189924843	14
80	1352	20.009944924843	118
80	1368	20.010261738494	14
80	1391	20.011697355451	118
80	1407	20.012014169102	14
80	1424	20.012829169102	70
80	1450	20.013148786059	14
80	1463	20.01376859971	70
80	1489	20.014088216667	14
80	1502	20.014681030318	70
80	1529	20.015000647275	14
80	1542	20.015503460926	70
81	0	0	2000000
82	0	0	0
83	0	0	0
83	41	10.000028	2
83	65	10.00078	1
83	81	10.000783202081	0
83	126	11.000028	2
83	150	11.00078	1
83	166	11.000783202081	0
83	211	12.000028	2
83	235	12.00078	1
83	251	12.000783202081	0
83	296	13.000028	2
83	320	13.00078	1
83	336	13.000783202081	0
83	381	14.000028	2
83	405	14.00078	1
83	421	14.000783202081	0
83	466	15.000028	2
83	490	15.00078	1
83	506	15.000783202081	0
83	551	16.000028	2
83	575	16.00078	1
83	591	16.000783202081	0
83	636	17.000028	2
83	660	17.00078	1
83	676	17.000783202081	0
83	721	18.000028	2
83	745	18.00078	1
83	761	18.000783202081	0
83	830	19.000028	2
83	854	19.00078	1
83	870	19.000783202081	0
83	938	20.000028	2
83	962	20.00078	1
83	978	20.000784677434	0
83	990	20.000887429995	1
83	1004	20.001639429995	0
83	1022	20.001670243646	1
83	1027	20.002142243646	0
83	1047	20.002157860603	1
83	1058	20.002461860603	0
83	1071	20.002521389986	1
83	1092	20.003273389986	0
83	1104	20.003310389986	2
83	1121	20.004062389986	0
83	1137	20.004184016062	1
83	1145	20.004656016062	0
83	1160	20.004671633019	1
83	1171	20.004975633019	0
83	1181	20.005066633019	1
83	1190	20.005730633019	0
83	1202	20.00574344667	1
83	1211	20.00604744667	0
83	1225	20.006117063627	1
83	1234	20.006781063627	0
83	1241	20.006793877278	1
83	1250	20.007097877278	0
83	1262	20.007143877278	1
83	1267	20.007615877278	0
83	1282	20.007631494235	1
83	1293	20.007935494235	0
83	1301	20.008398307886	1
83	1306	20.008870307886	0
83	1321	20.008885924843	1
83	1332	20.009189924843	0
83	1342	20.009280924843	1
83	1351	20.009944924843	0
83	1358	20.009957738494	1
83	1367	20.010261738494	0
83	1381	20.011033355451	1
83	1390	20.011697355451	0
83	1397	20.011710169102	1
83	1406	20.012014169102	0
83	1418	20.012357169102	1
83	1423	20.012829169102	0
83	1438	20.012844786059	1
83	1449	20.013148786059	0
83	1457	20.01329659971	1
83	1462	20.01376859971	0
83	1477	20.013784216667	1
83	1488	20.014088216667	0
83	1496	20.014209030318	1
83	1501	20.014681030318	0
83	1516	20.014696647275	1
83	1528	20.015000647275	0
83	1536	20.015031460926	1
83	1541	20.015503460926	0
83	1562	20.01552081868	1
88	14	10	0
88	95	11	1
88	180	12	2
88	265	13	3
88	350	14	4
88	435	15	5
88	520	16	6
88	605	17	7
88	690	18	8
88	799	19	9
88	892	20	10
93	888	20	0
95	22	10	1
95	99	11	1
95	184	12	1
95	277	13	1
95	354	14	1
95	439	15	1
95	532	16	1
95	609	17	1
95	694	18	1
95	811	19	1
95	896	20	1
95	910	20	1
100	0	0	0
102	1031	20.002144645912	70
102	1075	20.003271779192	70
103	38	10.000028	70
103	123	11.000028	70
103	208	12.000028	70
103	293	13.000028	70
103	378	14.000028	70
103	463	15.000028	70
103	548	16.000028	70
103	633	17.000028	70
103	718	18.000028	70
103	827	19.000028	70
103	935	20.000028	70
103	986	20.000884215304	70
103	1043	20.002154645912	14
103	1101	20.003308779192	118
103	1156	20.004668418328	14
103	1177	20.005063418328	118
103	1221	20.006113848936	118
103	1278	20.007628279544	14
103	1317	20.008882710152	14
103	1338	20.009277710152	118
103	1377	20.01103014076	118
103	1434	20.012841571368	14
103	1473	20.013781001976	14
103	1512	20.014693432584	14
104	34	10	70
104	119	11	70
104	204	12	70
104	289	13	70
104	374	14	70
104	459	15	70
104	544	16	70
104	629	17	70
104	714	18	70
104	823	19	70
104	925	20	70
104	931	20	70
104	1036	20.002144645912	118
105	1031	20.002144645912	70
105	1075	20.003271779192	70
105	1149	20.004658418328	70
105	1214	20.006049848936	14
105	1253	20.007100279544	14
105	1271	20.007618279544	70
105	1310	20.008872710152	70
105	1370	20.01026414076	14
105	1409	20.012016571368	14
105	1427	20.012831571368	70
105	1466	20.013771001976	70
105	1505	20.014683432584	70
105	1545	20.015505863192	70
106	0	0	2000000
107	0	0	0
108	0	0	0
108	42	10.000028	2
108	66	10.00078	1
108	82	10.000783233387	0
108	127	11.000028	2
108	151	11.00078	1
108	167	11.000783233387	0
108	212	12.000028	2
108	236	12.00078	1
108	252	12.000783233387	0
108	297	13.000028	2
108	321	13.00078	1
108	337	13.000783233387	0
108	382	14.000028	2
108	406	14.00078	1
108	422	14.000783233387	0
108	467	15.000028	2
108	491	15.00078	1
108	507	15.000783233387	0
108	552	16.000028	2
108	576	16.00078	1
108	592	16.000783233387	0
108	637	17.000028	2
108	661	17.00078	1
108	677	17.000783233387	0
108	722	18.000028	2
108	746	18.00078	1
108	762	18.000783233387	0
108	831	19.000028	2
108	855	19.00078	1
108	871	19.000783233387	0
108	939	20.000028	2
108	963	20.00078	1
108	974	20.000784215304	0
108	987	20.000884215304	2
108	993	20.001636215304	0
108	1023	20.001672645912	1
108	1030	20.002144645912	0
108	1044	20.002154645912	2
108	1051	20.002458645912	0
108	1068	20.002519779192	1
108	1074	20.003271779192	0
108	1102	20.003308779192	2
108	1113	20.003972779192	1
108	1129	20.004065604677	0
108	1138	20.004186418328	1
108	1148	20.004658418328	0
108	1157	20.004668418328	2
108	1164	20.004972418328	0
108	1178	20.005063418328	2
108	1183	20.005727418328	0
108	1203	20.005745848936	1
108	1213	20.006049848936	0
108	1222	20.006113848936	2
108	1227	20.006777848936	0
108	1242	20.006796279544	1
108	1252	20.007100279544	0
108	1263	20.007146279544	1
108	1270	20.007618279544	0
108	1279	20.007628279544	2
108	1286	20.007932279544	0
108	1302	20.008400710152	1
108	1309	20.008872710152	0
108	1318	20.008882710152	2
108	1325	20.009186710152	0
108	1339	20.009277710152	2
108	1344	20.009941710152	0
108	1359	20.00996014076	1
108	1369	20.01026414076	0
108	1378	20.01103014076	2
108	1383	20.01169414076	0
108	1398	20.011712571368	1
108	1408	20.012016571368	0
108	1419	20.012359571368	1
108	1426	20.012831571368	0
108	1435	20.012841571368	2
108	1442	20.013145571368	0
108	1458	20.013299001976	1
108	1465	20.013771001976	0
108	1474	20.013781001976	2
108	1481	20.014085001976	0
108	1497	20.014211432584	1
108	1504	20.014683432584	0
108	1513	20.014693432584	2
108	1521	20.014997432584	0
108	1537	20.015033863192	1
108	1544	20.015505863192	0
108	1559	20.015519207886	1
110	0	0	0
110	0	0	0
110	43	10.000029440283	0
110	43	10.000029440283	0
110	68	10.000781440283	0
110	68	10.000781440283	0
110	77	10.000783024013	0
110	77	10.000783024013	0
110	128	11.000029440283	0
110	128	11.000029440283	0
110	153	11.000781440283	0
110	153	11.000781440283	0
110	162	11.000783024013	0
110	162	11.000783024013	0
110	213	12.000029440283	0
110	213	12.000029440283	0
110	238	12.000781440283	0
110	238	12.000781440283	0
110	247	12.000783024013	0
110	247	12.000783024013	0
110	298	13.000029440283	0
110	298	13.000029440283	0
110	323	13.000781440283	0
110	323	13.000781440283	0
110	332	13.000783024013	0
110	332	13.000783024013	0
110	383	14.000029440283	0
110	383	14.000029440283	0
110	408	14.000781440283	0
110	408	14.000781440283	0
110	417	14.000783024013	0
110	417	14.000783024013	0
110	468	15.000029440283	0
110	468	15.000029440283	0
110	493	15.000781440283	0
110	493	15.000781440283	0
110	502	15.000783024013	0
110	502	15.000783024013	0
110	553	16.000029440283	0
110	553	16.000029440283	0
110	578	16.000781440283	0
110	578	16.000781440283	0
110	587	16.000783024013	0
110	587	16.000783024013	0
110	638	17.000029440283	0
110	638	17.000029440283	0
110	663	17.000781440283	0
110	663	17.000781440283	0
110	672	17.000783024013	0
110	672	17.000783024013	0
110	723	18.000029440283	0
110	723	18.000029440283	0
110	748	18.000781440283	0
110	748	18.000781440283	0
110	757	18.000783024013	0
110	757	18.000783024013	0
110	832	19.000029440283	0
110	832	19.000029440283	0
110	857	19.000781440283	0
110	857	19.000781440283	0
110	866	19.000783024013	0
110	866	19.000783024013	0
110	940	20.000029659952	0
110	940	20.000029659952	0
110	965	20.000781659952	0
110	965	20.000781659952	0
110	980	20.000785296947	0
110	980	20.000785296947	0
110	988	20.000885875256	0
110	988	20.000885875256	0
110	994	20.001637875256	0
110	994	20.001637875256	0
110	995	20.001637875256	0
110	995	20.001637875256	0
110	1025	20.001673727555	0
110	1025	20.001673727555	0
110	1040	20.002145727555	0